          812
Energy of minimum  1=   316890.4580541318 first found at step     6503
LA        -0.2292640439        0.8899556430        0.3942295673
LA        -0.0846724630        0.8173163498        0.5699338193
LA        -0.0204780914       -0.7146870194        0.6991445573
LA        -0.2886390106       -0.9160952043       -0.2783111536
LA        -0.8091946207       -0.4103865202        0.4204604261
LA        -0.7802980180        0.0040270713        0.6253949039
LA        -0.4897296171        0.8106080084       -0.3210600549
LA        -0.7422123094        0.6507172858        0.1602744576
LA         0.6029047488       -0.6526130467        0.4589140171
LA         0.4722928235       -0.8774465407       -0.0838275434
LA        -0.4561243535       -0.2670867668       -0.8488905896
LA        -0.0015338293        0.9893630476       -0.1454592982
LA        -0.4898094467        0.3664781697        0.7910628654
LA         0.4098686086       -0.4876580023        0.7708420049
LA        -0.0819401333        0.4475794717       -0.8904821341
LA         0.5577386126       -0.5923293618        0.5814409404
LA        -0.1942560735        0.5028875757       -0.8422402650
LA         0.6575716431        0.7533396711        0.0088811115
LA        -0.0834442350        0.5732780576        0.8151008087
LA        -0.1677700015       -0.4405205886        0.8819267756
LA         0.0895750660       -0.6994505658       -0.7090452831
LA         0.4157590261        0.5402466079        0.7316269780
LA         0.9023167003        0.2371496607       -0.3599786255
LA        -0.5266738627        0.0066958699       -0.8500410623
LA        -0.3840232841       -0.7203263276        0.5776297248
LA         0.6054474850        0.5408821849        0.5838491286
LA         0.2165700508       -0.5054180958       -0.8352544292
LA         0.0064808175       -0.2056716116       -0.9785996051
LA         0.2675123797       -0.7917659604        0.5491300308
LA        -0.6531833544       -0.7562714270        0.0374837858
LA        -0.9259347171        0.3393236231        0.1658444405
LA        -0.1734245024        0.7523807999        0.6354896331
LA        -0.5853226362        0.0101344199        0.8107371368
LA        -0.7543191381        0.2351701157        0.6129418036
LA        -0.7693234608       -0.3549624351       -0.5311714246
LA         0.1056050538       -0.6859021180        0.7199901785
LA         0.8537512463       -0.4553992896       -0.2524287946
LA        -0.4355429661        0.8078916476        0.3970055547
LA        -0.7630001488       -0.6338306581       -0.1268442739
LA        -0.7368560052       -0.1077989448        0.6673998914
LA         0.5873716658        0.6013949615       -0.5415889830
LA        -0.9944160541       -0.1027721455       -0.0239707634
LA        -0.5802280960       -0.4345923817       -0.6888140666
LA        -0.6297570136        0.6832739966        0.3695169135
LA         0.4442030406        0.6905181231        0.5708488244
LA        -0.9544927109        0.2082719231        0.2134630433
LA         0.1962522333       -0.0616948235       -0.9786106528
LA         0.9236507395       -0.2286849682       -0.3075264162
LA        -0.2965475711       -0.9383626835        0.1775810024
LA        -0.6287652960        0.1237715440        0.7676814492
LA        -0.1275079696        0.9389969913        0.3194156665
LA        -0.8975609280       -0.0820442566        0.4331894741
LA        -0.3324944717        0.2618646028        0.9060211676
LA        -0.6107032446       -0.3247120888        0.7222213002
LA         0.6875923170       -0.1162898694        0.7167241253
LA        -0.8696985778       -0.3948106024        0.2962245297
LA         0.3884114769        0.3535835200       -0.8509495984
LA        -0.6002269232       -0.0899611533       -0.7947544474
LA        -0.3545915485        0.9121170569        0.2056874044
LA         0.6848683094        0.5147477876       -0.5157422941
LA        -0.9720640780       -0.2343512361        0.0130738834
LA         0.6362506593       -0.4744119176       -0.6083735949
LA        -0.3746403596        0.3737425027        0.8485052402
LA        -0.9089358995        0.1935210135       -0.3693035986
LA         0.3209456650        0.0283205314        0.9466740873
LA        -0.2016468951       -0.9748797040        0.0945943574
LA        -0.8450620510        0.3973589193       -0.3577373607
LA        -0.0587726714       -0.9439341840       -0.3248600150
LA        -0.1143398098        0.9910356589       -0.0690994263
LA        -0.9071510206        0.3074232555        0.2873464249
LA         0.6163567622       -0.0609831008       -0.7851021610
LA         0.2839144093       -0.7605560089       -0.5839068124
LA        -0.2566129948        0.7446855437       -0.6161113632
LA        -0.3280365552        0.3138134661       -0.8910180284
LA         0.4347649748       -0.6458796883        0.6275498744
LA        -0.4634933749       -0.6239850258        0.6291395545
LA         0.0945045378        0.8732022284       -0.4781074781
LA         0.9211431034       -0.2460141853        0.3016163187
LA        -0.0729891217       -0.9881085528        0.1353295091
LA         0.7479856988       -0.3535329762       -0.5617221992
LA         0.2276722983        0.9621536641       -0.1497519658
LA        -0.5965545684        0.6357968989        0.4897805124
LA         0.7793094452       -0.6247872683        0.0481420609
LA         0.4089058300        0.2378556339        0.8810338924
LA        -0.1449663556       -0.7299728366        0.6679254551
LA         0.7411510676        0.6685976752       -0.0605990406
LA        -0.0127229634        0.9288302771        0.3702869733
LA         0.9263251193        0.3758955716       -0.0249858494
LA         0.5592371557        0.6440449039        0.5219769779
LA         0.5043310154        0.7368041085        0.4502998252
LA         0.4375228638        0.8194591156        0.3702168305
LA        -0.8037373670       -0.5002955477        0.3220413171
LA        -0.7100317903        0.3550660448       -0.6080978216
LA        -0.7702885811        0.4868120213       -0.4119096475
LA        -0.6278264353       -0.3126174983       -0.7128143285
LA        -0.8255944647       -0.0979659383        0.5556945697
LA         0.9117042681       -0.1122766466       -0.3952078974
LA        -0.4143047766       -0.0989997120        0.9047378676
LA        -0.1934336843       -0.5169397843       -0.8338804885
LA        -0.8989165146        0.0794015512       -0.4308648203
LA         0.3166446291       -0.9150053537       -0.2500027631
LA        -0.2818440278        0.6512132270       -0.7046171138
LA        -0.2151338556        0.5822360034        0.7840399610
LA        -0.9267349707       -0.1307803346       -0.3522198152
LA         0.1821108812       -0.1582474727        0.9704603878
LA        -0.4092103442        0.7495788612        0.5202676475
LA         0.5473654450        0.0351951102       -0.8361533196
LA         0.0633053149       -0.7799174637        0.6226726162
LA        -0.7495791546       -0.6619126598       -0.0016497792
LA         0.2783610257       -0.5380729258        0.7956083622
LA         0.3962075139       -0.8534935539       -0.3384794814
LA        -0.5600608984        0.8261875044       -0.0612045551
LA        -0.9800572745        0.1630230768       -0.1136275284
LA         0.9458655938        0.1296444485       -0.2975409139
LA         0.2400459732        0.4135099157        0.8782866732
LA        -0.2633264666       -0.2125844024       -0.9409925844
LA         0.4333313624        0.0053402394       -0.9012188481
LA         0.4588747835       -0.6374626632       -0.6189307603
LA        -0.9230605373        0.0396074665        0.3826101058
LA        -0.3333755713        0.1873378305       -0.9239941914
LA         0.5011953049       -0.8643760687        0.0407096822
LA        -0.7334789698       -0.5157648662        0.4427134555
LA        -0.7144255679       -0.3183466391        0.6230983271
LA         0.6659850150       -0.5428559661       -0.5116359641
LA         0.8452655950        0.2235428583       -0.4853397411
LA         0.9648979756       -0.1630181266        0.2059052869
LA        -0.0372548672       -0.4270731592        0.9034492745
LA        -0.3289756256       -0.9431146429        0.0480604628
LA         0.7243559991       -0.2462479225       -0.6439490253
LA         0.0995094990       -0.9783654447       -0.1813805837
LA        -0.6807349015       -0.6469379269       -0.3436150645
LA        -0.1805220940       -0.6880203860       -0.7028795929
LA         0.7440683413        0.5375668321       -0.3967167814
LA        -0.1304746286        0.6676144791        0.7329851831
LA         0.9830457007        0.1594866294        0.0904719034
LA         0.3425306030       -0.6695882699       -0.6590328784
LA        -0.0795542975        0.2611220277        0.9620220374
LA         0.6628830283       -0.7384937804       -0.1233411007
LA        -0.1174832432        0.9717901988       -0.2045030492
LA         0.6711257925       -0.2478411240        0.6986880190
LA         0.5148915847       -0.3208575969       -0.7949446890
LA         0.1846619657        0.2234177276        0.9570707797
LA         0.3498254429       -0.9286400493       -0.1234901545
LA        -0.9861828076       -0.0721106562       -0.1491426271
LA         0.7067632886        0.6230443347        0.3351140267
LA        -0.6177820472       -0.7699520186        0.1597473983
LA        -0.5511463020        0.7271615464       -0.4092356770
LA         0.8771326129        0.2130882229        0.4303856278
LA        -0.4894671231        0.6618797885        0.5677473743
LA        -0.4132367832       -0.4368975101        0.7989717934
LA        -0.9824103060       -0.0295105303        0.1843885010
LA         0.3255395246       -0.4250493039        0.8446047047
LA         0.1909767949       -0.4712532965        0.8610738612
LA         0.5726610225       -0.7304650656       -0.3721291997
LA         0.4067099079       -0.5643629080       -0.7183881673
LA         0.0142990395        0.1385479746       -0.9902524911
LA         0.2798627989       -0.3906091988       -0.8769841889
LA         0.4523206891        0.8572757747        0.2459354393
LA         0.8110703270        0.5707491649        0.1281027534
LA        -0.4515106120       -0.6443108160       -0.6172533836
LA         0.5176636772       -0.6937771301       -0.5006971251
LA        -0.4187051231       -0.8990971736        0.1277117551
LA        -0.0342456258       -0.8420230727       -0.5383533990
LA         0.6557493865        0.7423710760        0.1373969713
LA        -0.8919882633       -0.4482317404       -0.0586962092
LA         0.8389197199       -0.5429794311       -0.0372429991
LA        -0.2255743397        0.9661079072       -0.1255058919
LA        -0.3500696596       -0.6397047853        0.6842726219
LA        -0.3329599973       -0.5001263978       -0.7993817776
LA         0.6079583124       -0.0445093036        0.7927203872
LA        -0.8728228935       -0.3739582901       -0.3135847475
LA        -0.9176039060       -0.1831436299        0.3527909899
LA        -0.7265475010        0.1206714026        0.6764370934
LA         0.1561422202       -0.9851681299        0.0711573114
LA        -0.3794590685       -0.3303490433        0.8642223816
LA         0.3317162238        0.4785212509        0.8130078470
LA        -0.1833494241       -0.8093108668        0.5580312800
LA         0.9048487303       -0.4046132428        0.1324269571
LA        -0.9181679136        0.3858507989       -0.0899268785
LA        -0.8339317229       -0.5285823186       -0.1586146712
LA         0.8836567421       -0.1910151493        0.4273920623
LA        -0.9452162988        0.0697111255       -0.3189145770
LA        -0.7017174156        0.5840791882        0.4079756985
LA         0.8983635820        0.1198814564       -0.4225769882
LA         0.0853845205       -0.5211573599       -0.8491787149
LA        -0.9530135409        0.1797594664       -0.2438272444
LA        -0.2206998295        0.1391162298       -0.9653694940
LA         0.6710275946        0.2991028275        0.6784242521
LA        -0.6991560372        0.6731741862       -0.2408679114
LA        -0.1084335947        0.0266130166        0.9937474040
LA        -0.8530073898        0.2924111265       -0.4322894008
LA        -0.6604295974        0.7419498764        0.1155124573
LA         0.7587972166       -0.6464287452       -0.0797286740
LA        -0.6619044297       -0.5851400459       -0.4685014969
LA         0.7506001178       -0.4954909688        0.4371363207
LA         0.6084958012        0.7059734432       -0.3624008243
LA        -0.8721599952       -0.1808079695       -0.4545826888
LA        -0.5206434982       -0.3539497198       -0.7769491255
LA         0.6910235935       -0.7228257120        0.0030632289
LA        -0.2586996305       -0.5982253458       -0.7584200267
LA        -0.2925633684       -0.8080423427       -0.5113455269
LA        -0.3570082506        0.0228521401        0.9338216579
LA        -0.1893355860       -0.1155116000       -0.9750944088
LA         0.1798089272       -0.9638197844        0.1967744213
LA        -0.7764316340       -0.2101125709        0.5941436066
LA        -0.1772683496        0.6112963565       -0.7712928736
LA        -0.9223106354       -0.2816327393        0.2646244357
LA        -0.9974611834        0.0307013156       -0.0642543135
LA        -0.0471469848       -0.7020251221       -0.7105898183
LA        -0.6421757618        0.7518901855       -0.1492361884
LA         0.7891433632        0.5533228526       -0.2666206541
LA         0.4045840262       -0.9062216111        0.1227768598
LA         0.6942954462        0.0223012378        0.7193444850
LA         0.1289687102       -0.9900970307       -0.0554521558
LA         0.1958200126        0.8201339944       -0.5376195252
LA         0.5112322707       -0.8080863784       -0.2926396598
LA        -0.2013502875       -0.5464142697        0.8129511102
LA         0.0276923883       -0.7773457889       -0.6284637270
LA         0.8755955688       -0.3459240588       -0.3371482545
LA         0.1490800261        0.2986109870       -0.9426593363
LA         0.8346424603        0.0101751846        0.5506981288
LA        -0.4007853272       -0.3916103949       -0.8282586674
LA         0.9571056057       -0.2236469564       -0.1842034157
LA         0.2817491049        0.2965897418        0.9124976531
LA         0.6756193593       -0.1544404175       -0.7208929454
LA        -0.6587025914       -0.5131168932        0.5502926041
LA         0.6058636393       -0.4864358149        0.6295311339
LA        -0.6964542214        0.3385117700        0.6327410995
LA        -0.7620172389       -0.5953504987       -0.2547302716
LA         0.5223570594       -0.8367402078        0.1643439293
LA        -0.2589045705        0.6740680957        0.6918096745
LA         0.9912804320       -0.0775240714        0.1065510373
LA        -0.4083905220        0.1406996207        0.9018984412
LA         0.4948753467        0.3031169639        0.8143822797
LA         0.7679665222        0.0876017198        0.6344709288
LA        -0.4554971927       -0.8902347234        0.0021082533
LA         0.1439787747       -0.1943616787       -0.9703059571
LA        -0.4560014508        0.8476969583        0.2710581925
LA        -0.8287571919       -0.5587729804       -0.0305658856
LA         0.5670954886       -0.5943308880       -0.5702398640
LA        -0.5611243148        0.5637312897        0.6060911948
LA        -0.6531916670        0.6592195822       -0.3725187090
LA        -0.4377410742        0.7905678097       -0.4282350875
LA         0.3907378672        0.6728461631       -0.6281735110
LA        -0.5916264960       -0.7879872743       -0.1704527640
LA         0.5236959067       -0.5249952883       -0.6709117263
LA         0.5968944719        0.2778254773       -0.7526818675
LA         0.4367419647       -0.8748273742       -0.2096032480
LA        -0.6853006745       -0.6959741284       -0.2144364663
LA        -0.4211065056        0.4739505664       -0.7733305707
LA        -0.5428438667        0.8178514058       -0.1908916299
LA        -0.0418350951        0.7396935932        0.6716421763
LA         0.7066600775       -0.6568360820        0.2630549302
LA         0.8091670018       -0.0120753836       -0.5874546352
LA         0.4225185660       -0.8733490442        0.2423623495
LA        -0.1871067376       -0.9129781387       -0.3625768705
LA         0.0687274831       -0.9498199997       -0.3051532421
LA         0.9143647402       -0.3423786226       -0.2161342189
LA        -0.1706683789       -0.9597847579        0.2229024964
LA         0.8508992670       -0.1197418255       -0.5115000808
LA        -0.3828061303        0.6803800755       -0.6249339321
LA        -0.4883214257       -0.7142517473       -0.5013847092
LA         0.1130331415        0.9697229176       -0.2164739523
LA        -0.5606834595        0.2468800976        0.7903697082
LA         0.2285843292        0.9424377590        0.2440497385
LA         0.6042974575        0.3912867087       -0.6940600078
LA        -0.4743931278        0.7073538567       -0.5240245049
LA         0.1041490340        0.9315582899       -0.3483563281
LA         0.2338113082       -0.6470173286        0.7257415853
LA         0.6806008397        0.1822156916       -0.7096336652
LA        -0.0516146939       -0.5235544057       -0.8504273676
LA        -0.2068339670        0.3874494171       -0.8983889243
LA        -0.0715250730       -0.0921330106       -0.9931745427
LA        -0.7222839007       -0.4740058760       -0.5036113545
LA        -0.8898642234       -0.4163463481       -0.1865405646
LA        -0.1302953269       -0.3287642946        0.9353807601
LA         0.0047000831        0.6516852220        0.7584749703
LA        -0.3170763291        0.4340030190       -0.8432698151
LA        -0.5894788029       -0.6866456521       -0.4254791292
LA        -0.8616120695        0.0166139608        0.5072953953
LA        -0.9400985024       -0.3300802842       -0.0852162646
LA        -0.6197128223        0.4357237699       -0.6527639805
LA         0.2765708719       -0.2338731760        0.9321007941
LA         0.8079235274       -0.4558262682       -0.3734728734
LA         0.9220374164        0.3703545217        0.1126256231
LA         0.3943812139        0.4669510060       -0.7914671289
LA        -0.6840350381       -0.6888645917        0.2399200718
LA        -0.8487200430       -0.4909047293        0.1966896932
LA         0.0024535811       -0.3142518924        0.9493364672
LA        -0.9906228097        0.1359853806        0.0132070087
LA         0.5194120437        0.0270157453        0.8540967617
LA         0.2192784795       -0.6904772599       -0.6893171273
LA         0.8932377199       -0.0588190625        0.4457204210
LA        -0.4977030176       -0.3265103311        0.8035438445
LA        -0.3402061287       -0.2164644235        0.9150972317
LA         0.0053207180        0.8686375862        0.4954194523
LA         0.3898455554       -0.1292944275       -0.9117584077
LA        -0.2345097105        0.9720960064        0.0058779260
LA        -0.3017527713        0.5470738376       -0.7808043808
LA        -0.2604507452       -0.9154915592        0.3066604219
LA        -0.6235859322        0.0493097943       -0.7801981347
LA        -0.2522700227        0.3767260845        0.8913121187
LA        -0.4040892385        0.5826995930       -0.7051050076
LA         0.7907482568       -0.3789476350        0.4807451345
LA        -0.1618363570       -0.9571078483       -0.2403197041
LA         0.2139289059       -0.2941289045       -0.9315162965
LA        -0.3339235416       -0.3047176660       -0.8919877871
LA         0.5540292204       -0.8156579140       -0.1665946885
LA        -0.2664601182       -0.7315603710        0.6275495431
LA        -0.4999626010       -0.8412028192        0.2059495439
LA         0.5246333922        0.7899299719       -0.3174436065
LA        -0.5969080014        0.3547036552        0.7196430746
LA        -0.1136231531        0.8865764509        0.4484104992
LA        -0.8567082118       -0.1975553779        0.4764692147
LA         0.1547183334       -0.6090501855       -0.7778946644
LA         0.8076938154       -0.2378404515       -0.5395021967
LA        -0.1069440377        0.0753729776       -0.9914039979
LA        -0.7191538622        0.4244647074        0.5501340151
LA         0.0187020815       -0.6158095021        0.7876730853
LA         0.8601266806        0.4630318318       -0.2139710635
LA        -0.9726085624       -0.2045250231       -0.1104631130
LA        -0.2947046076       -0.0968290617        0.9506699359
LA        -0.1236555232        0.3744094329        0.9189814406
LA        -0.8349761901       -0.0925020752       -0.5424556461
LA        -0.2928063680       -0.4425596991        0.8475879563
LA         0.3739627266        0.3629394181        0.8534792662
LA         0.5362124435        0.4859567896        0.6901610058
LA         0.7845170288       -0.5935372635        0.1795732398
LA         0.2365079778        0.0751630506       -0.9687179632
LA        -0.5056630492       -0.7770954939       -0.3747365395
LA        -0.4196970303       -0.7828277761        0.4593855414
LA        -0.1013290527        0.2062939714       -0.9732292744
LA         0.4935038251        0.5937107947        0.6355796306
LA        -0.8038640330       -0.4279527666       -0.4131090001
LA         0.2333173068       -0.8668859412        0.4405358093
LA         0.1452408959       -0.8321049788        0.5352629133
LA         0.9879709748        0.1492585878       -0.0404379401
LA         0.8847722033       -0.4482048916       -0.1276343346
LA        -0.2058314767        0.8285919983        0.5206425871
LA         0.3415944254       -0.4827783416       -0.8063735620
LA         0.3443796122       -0.8153310733       -0.4654437922
LA        -0.5708852332       -0.6051319585        0.5548922087
LA        -0.7152926328        0.2276924835       -0.6606909886
LA         0.4587106941        0.4268867584        0.7793280405
LA        -0.7229404645       -0.6802293691        0.1210169004
LA        -0.0353698436        0.4707978734        0.8815318126
LA        -0.0453872223       -0.0928639717        0.9946437969
LA        -0.0317605076        0.7588149676       -0.6505314097
LA         0.4340841315       -0.8260362204        0.3594928780
LA         0.2815535940       -0.9547630384        0.0956823612
LA         0.6215054413       -0.2774834106       -0.7326212823
LA        -0.9631705406        0.2662465405       -0.0376203307
LA        -0.0692027205        0.5591441895       -0.8261771958
LA         0.6632350416        0.5870144486        0.4642556589
LA         0.8627124178        0.3332584333        0.3803499714
LA         0.6956254392        0.4092408376       -0.5904465980
LA         0.5981121290        0.2338683151        0.7665295117
LA        -0.7955978779        0.3471641970        0.4964887078
LA        -0.8767560840        0.4808828425       -0.0071035910
LA        -0.7312140929        0.6741929843       -0.1038738193
LA         0.4248309478        0.8132510737       -0.3976699096
LA        -0.6626949335        0.5350178356        0.5240146379
LA         0.5046302141       -0.0926937231       -0.8583450476
LA         0.3673831080       -0.3047078361        0.8787393166
LA        -0.9601430290       -0.0419276893       -0.2763465809
LA         0.7286271009        0.6583585212       -0.1888560441
LA        -0.0456602992       -0.9636050322        0.2634017445
LA         0.0300634711       -0.9044030866       -0.4256186610
LA        -0.8900654326        0.3983638856       -0.2215620463
LA         0.1098093983        0.9484681087        0.2972375193
LA         0.3329873181        0.9186248008       -0.2127155879
LA        -0.7833348348        0.3834434184       -0.4892419458
LA        -0.9847413649        0.1056737778        0.1382660372
LA         0.0172719697       -0.4252221916       -0.9049241774
LA         0.3147899190        0.7364624277        0.5987740805
LA         0.5628315992        0.8239415039        0.0658861828
LA         0.0549073425        0.6030808255       -0.7957881009
LA         0.3756920501        0.2337171035       -0.8967897184
LA         0.3946562591       -0.1735646098        0.9022869629
LA         0.0956847450       -0.8466566276       -0.5234663165
LA         0.7679186168       -0.0532240194        0.6383323599
LA         0.8147550245       -0.5565106970       -0.1626963250
LA         0.3887418902        0.7762330744        0.4963284769
LA        -0.4137451354        0.4796159781        0.7738110083
LA        -0.5545798533       -0.5204088371        0.6493195119
LA        -0.2161897702        0.2661297374       -0.9393811506
LA        -0.1953832281       -0.3233600242       -0.9258853541
LA        -0.4503399784        0.2561168386        0.8553350623
LA        -0.8703706484       -0.2995116531        0.3908295076
LA        -0.5400188717        0.2732113854       -0.7960748439
LA         0.0435395243        0.4952154176       -0.8676785119
LA         0.3799728120       -0.9249973879        0.0007032624
LA        -0.6754320858       -0.7321774554       -0.0877933445
LA         0.9835345988       -0.1014263810       -0.1495740026
LA         0.3465676370        0.9219251166        0.1730460992
LA        -0.6321881279        0.1850452263       -0.7523938032
LA         0.2257555259       -0.9617303964       -0.1552710121
LA         0.1441857064        0.3400276767        0.9292963258
LA        -0.8498881432        0.1764421799       -0.4965463737
LA        -0.8400766387        0.3934060422        0.3735009064
LA         0.9392693225        0.0125233520        0.3429523369
LA         0.0241445284        0.2623893909       -0.9646599656
LA         0.9643303981        0.1316196971        0.2296587440
LA        -0.4993371318        0.6149797345       -0.6102969399
LA         0.0702490215       -0.0929841347       -0.9931862996
LA        -0.4616044082        0.8869080965        0.0177594683
LA        -0.5314177239        0.3970271689       -0.7483078443
LA         0.7706917223        0.4286998932       -0.4714346940
LA        -0.2222173543        0.8955169300       -0.3855760308
LA         0.8750255760        0.4770640122       -0.0820985367
LA        -0.1746683890       -0.8389507679       -0.5154149424
LA         0.4682103934        0.1338237218       -0.8734244323
LA        -0.3317273103        0.9258889055       -0.1807947074
LA        -0.7105929125        0.0922483985       -0.6975298887
LA        -0.0606982231       -0.8014947145        0.5949133957
LA         0.2357573749       -0.3559428008        0.9042804779
LA        -0.4337818391        0.3561053343       -0.8276607439
LA        -0.7743927944       -0.0047874572       -0.6326870319
LA         0.7705229563        0.2047573566       -0.6036296868
LA         0.7374878912       -0.3155063285        0.5971326210
LA         0.1487068397       -0.5825346758        0.7990867458
LA        -0.9801345665        0.0580394815       -0.1896513911
LA        -0.1200175034        0.8771081030       -0.4650560982
LA         0.1008058096        0.4512793534        0.8866708149
LA        -0.2381729923       -0.7542989767       -0.6118060800
LA        -0.5476772841        0.7712540983        0.3243712507
LA        -0.7737417420       -0.5938643700        0.2205647904
LA         0.6503503534        0.7504612082       -0.1176961884
LA        -0.7937725519        0.5144344744        0.3244723522
LA         0.5095208856       -0.1125638408        0.8530638012
LA        -0.8124230448        0.5468430609        0.2023152564
LA         0.8329870565       -0.1246293612        0.5390733587
LA         0.7731592147       -0.1304982012       -0.6206408368
LA         0.5452962748        0.8162748934       -0.1906496028
LA         0.4896159260        0.2558290364       -0.8335632844
LA         0.1375211092        0.1738452564       -0.9751234647
LA        -0.5636576159        0.8020946054        0.1973178551
LA         0.7424113328        0.6663492247        0.0693117857
LA         0.2004145381       -0.9257749792        0.3205849355
LA         0.9404461706        0.2491911473       -0.2312245062
LA         0.4576240512        0.8890989855       -0.0091225986
LA         0.0704668744        0.7043493505       -0.7063472320
LA         0.7046293437        0.4788049389        0.5236824596
LA        -0.1326169993        0.7996450533       -0.5856453877
LA        -0.9009978089       -0.0424044647       -0.4317462331
LA        -0.8027131956       -0.3085321629        0.5103522609
LA         0.4883929050       -0.5423596528        0.6836068880
LA         0.8473601424       -0.4821033256        0.2226144032
LA        -0.5727056335       -0.7700463737        0.2811349135
LA        -0.9624316074        0.0732233533        0.2614646087
LA         0.6339455369        0.7346673953       -0.2416130677
LA        -0.2169469601       -0.2160764514        0.9519690035
LA         0.7514448470        0.0863975820       -0.6541147451
LA         0.8282178211        0.1526889009        0.5392043586
LA        -0.7573165440       -0.1383158293       -0.6382322333
LA        -0.8434417111        0.0371704584       -0.5359332392
LA        -0.4413720767       -0.5350079664        0.7203868168
LA        -0.1256081784        0.9733943913        0.1916401434
LA        -0.1317891199       -0.9842742300       -0.1176259665
LA         0.3164288488        0.1710257804        0.9330717904
LA         0.1390661457        0.8453044104        0.5158692285
LA        -0.3996126663       -0.8559503741       -0.3281138127
LA        -0.0893370343       -0.2125903643        0.9730489357
LA         0.4040510304       -0.7332668486       -0.5468660655
LA         0.7054897070        0.6351150537       -0.3145045976
LA         0.5005124274        0.3715460757       -0.7819468164
LA        -0.1220381063       -0.2228027854       -0.9671947164