          972
Energy of minimum  1=   455651.0809351077 first found at step        0
LA         0.3919822098        0.6619671398        0.6388657551
LA        -0.8263351856       -0.0095721510        0.5630972695
LA         0.8990523261        0.2306756377        0.3721473702
LA        -0.7124125869       -0.6216471235       -0.3256119774
LA        -0.1354539188        0.2801564529        0.9503497239
LA         0.0878303036        0.1983647352        0.9761850591
LA         0.6798331856        0.1061126343        0.7256493290
LA         0.4355357889        0.8980280197       -0.0620826258
LA         0.3216375385       -0.9405784632       -0.1089102772
LA        -0.1025569377       -0.8893334331       -0.4456098285
LA        -0.6085079958       -0.4409972032       -0.6597268267
LA        -0.0538307779       -0.4319722457       -0.9002789714
LA        -0.1681635654       -0.9839381633       -0.0598891151
LA         0.0773911083       -0.5703438381       -0.8177521157
LA        -0.0324482895        0.9994607920        0.0050233289
LA         0.5953763720       -0.6358109038       -0.4911939232
LA        -0.2524084559        0.9447206467       -0.2092674631
LA        -0.7273564410       -0.4752418267        0.4950735439
LA        -0.7658164101       -0.5755698080        0.2867832320
LA         0.5358774508        0.4062026809       -0.7401585910
LA         0.7969344212        0.2260512324        0.5601753018
LA         0.2123863356        0.0348063770        0.9765656970
LA         0.5617882909       -0.4099300292        0.7185758745
LA         0.9083430317        0.3102932200        0.2804122936
LA        -0.0773910996        0.5703438453        0.8177521115
LA        -0.8739895859       -0.4744619830        0.1050144296
LA        -0.6133108415        0.4754875850       -0.6306832550
LA         0.9970089345        0.0576414878       -0.0514843997
LA        -0.7270052952       -0.2986056226       -0.6183025012
LA        -0.8254705829        0.1332037465       -0.5485025785
LA        -0.9833022937       -0.1771834747        0.0415044041
LA         0.5499255732        0.8219783808        0.1480993095
LA        -0.7919851896       -0.5246362507       -0.3122759419
LA         0.6077897713       -0.0719308484        0.7908334508
LA         0.5395638084        0.8392561081       -0.0672315527
LA         0.8254888488        0.5289159256       -0.1970180302
LA        -0.0878538318       -0.7028186553       -0.7059232551
LA         0.8507228389       -0.3090493126        0.4251578221
LA         0.0636668156        0.3195551503       -0.9454263813
LA        -0.3805849192       -0.8859629855       -0.2649994483
LA        -0.2123863224       -0.0348063704       -0.9765657001
LA        -0.7969344198       -0.2260512387       -0.5601753011
LA         0.0587136390        0.9732522777       -0.2221096858
LA         0.2664453614        0.7144184285       -0.6470032291
LA         0.1012555448        0.9838052781        0.1479002684
LA        -0.5233143155        0.1136234422        0.8445305445
LA         0.2485385601        0.7925495609       -0.5568606448
LA         0.5315196481       -0.8103010221        0.2467774650
LA         0.5513858133        0.7058602172        0.4446740813
LA        -0.2423863531        0.9121262725       -0.3305669659
LA        -0.6492030518        0.5378328872       -0.5378393654
LA        -0.8668137153       -0.1615931791       -0.4717219811
LA        -0.3201316803        0.0076028855        0.9473425481
LA        -0.3600449217       -0.3997203824       -0.8429657586
LA        -0.2125056695        0.9641861164        0.1587024683
LA         0.4482416078        0.7578162578       -0.4741244356
LA         0.4163350733       -0.5094861964        0.7530530675
LA        -0.9929775735       -0.1026467876       -0.0588147559
LA        -0.7703040484        0.6204822342       -0.1470832079
LA         0.6464137908        0.5946963696       -0.4780015052
LA         0.2001823618        0.6652497735        0.7192842004
LA        -0.1927615988        0.8157456566       -0.5453457525
LA        -0.0676032430       -0.7041428071        0.7068328718
LA         0.6133108320       -0.4754875925        0.6306832587
LA         0.9799480890       -0.1084334333       -0.1671643903
LA         0.5048796535       -0.5222836070       -0.6872527696
LA         0.4464210546        0.8812920497        0.1550244016
LA        -0.5462716601        0.4199900320        0.7247038336
LA         0.7270053024        0.2986056234        0.6183024923
LA        -0.8009182167       -0.4409479511       -0.4050863050
LA         0.5305070784       -0.8384679123        0.1246346656
LA         0.8202206015        0.1297627506       -0.5571353456
LA         0.2283050170        0.5642184551        0.7934320098
LA        -0.0033271859        0.9945867280       -0.1038564890
LA         0.5959323607        0.4717529884       -0.6498567068
LA        -0.4905004012       -0.2250371267       -0.8418833934
LA        -0.8990523262       -0.2306756388       -0.3721473691
LA        -0.2349793825       -0.4574985435        0.8576011733
LA         0.8129545568       -0.4129105561       -0.4106211896
LA        -0.3940055491       -0.9177776889       -0.0494342098
LA        -0.7448739870        0.6611321000        0.0898169799
LA        -0.0536476462        0.9780498682       -0.2013464313
LA         0.2573407245       -0.4223350362       -0.8691426055
LA         0.2193082207       -0.8700379726        0.4415176446
LA         0.9017928593       -0.2241769033       -0.3694784906
LA         0.1193558992        0.9851344858       -0.1235484284
LA        -0.8158036332       -0.5677320225       -0.1102033699
LA         0.9214255988        0.3082275657       -0.2365811353
LA        -0.0216264318       -0.9715767193       -0.2357349696
LA        -0.1014070378       -0.0782105276       -0.9917659633
LA         0.9984548492       -0.0175664021        0.0527194046
LA         0.2472045080       -0.3183476757        0.9151746765
LA         0.7558435110       -0.1919511593        0.6259834976
LA         0.3247203568        0.9441891095       -0.0553499351
LA         0.3281650529       -0.1298707547        0.9356501938
LA        -0.9017928553        0.2241768977        0.3694785036
LA        -0.6152205074        0.7324703039       -0.2915321271
LA        -0.1000250626        0.8667858542       -0.4885460775
LA        -0.8449289104        0.2953443089        0.4459449245
LA        -0.5548903723        0.5837195880        0.5927631207
LA         0.4985142754       -0.2660724634        0.8250387636
LA        -0.3761664386       -0.2937528816        0.8787536942
LA        -0.8022480649        0.5765527106        0.1548709602
LA        -0.1890268226        0.8085222000        0.5572797434
LA         0.6918381856       -0.6415698160        0.3312825020
LA         0.3106580005        0.1042271675        0.9447900848
LA         0.2325698529       -0.9719720626       -0.0343740183
LA         0.3805451084       -0.4268266717        0.8203684616
LA         0.6756115660       -0.5932262568        0.4377574901
LA         0.1054854311       -0.5756291177        0.8108785005
LA        -0.2558124748       -0.7918627962       -0.5545388081
LA         0.6906094925        0.4102197802       -0.5956326560
LA        -0.3616677101        0.3841845065        0.8494696771
LA         0.4484095174        0.7676861013        0.4578066782
LA         0.3464286480       -0.8418178842       -0.4139200909
LA        -0.6799176415       -0.1260382083        0.7223755054
LA        -0.9750075820       -0.1466818865       -0.1668671303
LA         0.0797965030        0.9967933657       -0.0059585416
LA        -0.0736082816        0.4748886034       -0.8769621630
LA        -0.9280205458        0.2898248012       -0.2340501042
LA         0.8115612929       -0.2512362558        0.5274927598
LA        -0.3107273379        0.7965610341        0.5185933285
LA         0.0091906818       -0.1203961911       -0.9926833778
LA         0.4157472067        0.0620106294       -0.9073637319
LA         0.3784306848       -0.8751176715       -0.3015945589
LA         0.1354539351       -0.2801564452       -0.9503497239
LA         0.8687530117        0.1891250454       -0.4577116143
LA         0.8805686637        0.0718324492       -0.4684430892
LA         0.3076490632        0.1107695011       -0.9450302490
LA        -0.3829750484       -0.2829469160       -0.8793583769
LA        -0.9663841190        0.2156164542       -0.1400402770
LA        -0.4251745330        0.0549422062        0.9034422895
LA         0.7621319420       -0.6467303101        0.0299133576
LA         0.4858981521        0.2386601860       -0.8407997986
LA        -0.2283050097       -0.5642184458       -0.7934320185
LA         0.8263351935        0.0095721501       -0.5630972580
LA        -0.3336107934        0.8609955903       -0.3839146154
LA        -0.3919822099       -0.6619671295       -0.6388657658
LA         0.8022480613       -0.5765527176       -0.1548709525
LA         0.8277360994       -0.0142804232        0.5609358424
LA         0.3933322162       -0.3223750397        0.8610250295
LA         0.4741709188        0.6034861862       -0.6410665821
LA        -0.2456752453       -0.9570854405        0.1537242123
LA         0.0364303329       -0.3565343354       -0.9335716890
LA         0.8021502948        0.2469299933       -0.5436731398
LA         0.5909390849        0.1668621865        0.7892705548
LA         0.0181514579        0.8530328353        0.5215414715
LA         0.1444399641        0.9552555583        0.2581160883
LA        -0.1467538555        0.9097741883        0.3882965776
LA         0.7517585545       -0.1805612595       -0.6342371065
LA         0.6666164998       -0.7308047574       -0.1467884486
LA        -0.6423662527       -0.3357397222       -0.6889444364
LA         0.4905004120        0.2250371359        0.8418833846
LA         0.0477447168       -0.7313697032        0.6803078709
LA         0.1655775402       -0.7478474641        0.6428905417
LA        -0.3353576969       -0.5137474785       -0.7896826853
LA        -0.4248137020        0.7694658329        0.4769231077
LA         0.0344048139        0.5398833578        0.8410364254
LA        -0.9799480874        0.1084334302        0.1671644018
LA         0.1025569333        0.8893334396        0.4456098167
LA        -0.3481971539       -0.4064878210        0.8447049150
LA         0.7294892070       -0.3043730344       -0.6125377971
LA        -0.7773188888       -0.6288918225       -0.0164444744
LA        -0.5720687343       -0.8011381299        0.1758267899
LA        -0.9590384396       -0.2462415505        0.1400370315
LA        -0.6063940833        0.1777669737        0.7750387853
LA        -0.1702613895       -0.9550834721        0.2425419977
LA        -0.6035135530       -0.0644776261        0.7947414844
LA        -0.5953763711        0.6358109014        0.4911939275
LA        -0.7929203271        0.5485125213        0.2653514065
LA        -0.3010455604        0.5166978503       -0.8014954161
LA         0.6888999607       -0.0134218696        0.7247321557
LA         0.5730440847        0.6259273214        0.5289947687
LA         0.4217751720        0.8247382590       -0.3767127663
LA         0.5231020293       -0.7711854087        0.3628185942
LA         0.8668137171        0.1615931673        0.4717219818
LA        -0.8184514697       -0.1055323216       -0.5648009568
LA        -0.7699810089       -0.5988696150       -0.2201918033
LA         0.5057630759        0.1229319943       -0.8538685120
LA         0.3722671595        0.6635722319       -0.6489137500
LA         0.6885686175       -0.1176388258       -0.7155657661
LA         0.3089273549        0.6193622463        0.7217716379
LA        -0.9085697521        0.4050472329        0.1021652813
LA         0.4885270557        0.8338314406        0.2570339365
LA         0.9584230730       -0.2282126710       -0.1713014593
LA         0.0650169705       -0.8047616170       -0.5900267226
LA         0.4594054647        0.3516395468       -0.8156569427
LA         0.6656374205        0.7250155489       -0.1768594877
LA         0.4832994348       -0.8381844553       -0.2527221305
LA        -0.0625619463        0.9470369079        0.3149715827
LA         0.7517424343        0.6334279320       -0.1834458161
LA        -0.8425876775       -0.4992103311       -0.2020768444
LA         0.7296848232       -0.6495136803       -0.2137569598
LA        -0.4051391159        0.8960430688        0.1815739950
LA         0.7581695590       -0.5380310810        0.3683768121
LA         0.4176248408       -0.2891237132       -0.8613924604
LA         0.8739895867        0.4744619827       -0.1050144240
LA        -0.4741709303       -0.6034861746        0.6410665846
LA         0.8807884598        0.4206262191       -0.2174517714
LA        -0.4305690663        0.4587883459        0.7772538407
LA        -0.3391365265       -0.8180000388       -0.4646098933
LA        -0.1238319116       -0.5055434679        0.8538685260
LA         0.7470106722        0.1853440413       -0.6384533201
LA         0.0676032336        0.7041428038       -0.7068328760
LA        -0.7369234489       -0.6641402274       -0.1259428002
LA         0.6977353525       -0.6819640782        0.2192951752
LA        -0.3586405300       -0.7446252426        0.5629477936
LA        -0.5654296844       -0.2957182557        0.7699610284
LA        -0.9471353735       -0.2680055912       -0.1763734316
LA         0.9085697501       -0.4050472398       -0.1021652713
LA        -0.0181514602       -0.8530328291       -0.5215414815
LA         0.0548098701        0.7849883021        0.6170812295
LA         0.2743789531        0.3389167431        0.8999175692
LA        -0.4271065230        0.9023318235        0.0581145274
LA         0.9217216388        0.1339742032       -0.3639782047
LA        -0.8319417034        0.5503132169       -0.0709109681
LA         0.1838516150        0.2714812585        0.9447203342
LA        -0.9548454688       -0.2957976875        0.0278183182
LA         0.9614924850       -0.0407048820       -0.2718001359
LA        -0.2648361641        0.8997676124        0.3468141432
LA        -0.9964405382        0.0616229789        0.0575227113
LA         0.1513312604       -0.9771000012        0.1495808724
LA         0.0932903245       -0.9756694347       -0.1984088442
LA         0.7703040412       -0.6204822419        0.1470832132
LA        -0.2001823578       -0.6652497645       -0.7192842098
LA        -0.0737304232       -0.3164177093       -0.9457503148
LA        -0.9110375793       -0.4121534465        0.0118349343
LA        -0.9606637785       -0.0700022923       -0.2687466906
LA         0.8449289150       -0.2953443132       -0.4459449128
LA        -0.5884003377       -0.1816826831        0.7878936764
LA        -0.0278110517        0.7300253992        0.6828539097
LA        -0.1009570121       -0.0789668244        0.9917519460
LA         0.4176092963        0.8325396873        0.3639782202
LA        -0.6077897710        0.0719308456       -0.7908334513
LA         0.6894644071        0.0059387209       -0.7242952181
LA        -0.1766009893        0.4979727618        0.8490201523
LA         0.9358731303        0.3427091082        0.0818043472
LA        -0.4651153223       -0.3403519824       -0.8172076021
LA         0.7721507750        0.3615136789       -0.5225811331
LA         0.3362797815       -0.6015649122        0.7245933790
LA        -0.8555722227       -0.3476224511       -0.3836076163
LA         0.6470904976        0.7498150942        0.1380261295
LA        -0.1655775502        0.7478474580       -0.6428905462
LA        -0.9358731303       -0.3427091097       -0.0818043404
LA         0.2648361579       -0.8997676123       -0.3468141482
LA         0.1360049726       -0.2825695143        0.9495562737
LA        -0.5982560487        0.1919793300       -0.7779676324
LA        -0.4176093005       -0.8325396801       -0.3639782318
LA        -0.8115567449        0.4257434908       -0.4001476350
LA        -0.6656374216       -0.7250155499        0.1768594792
LA         0.8184514701        0.1055323132        0.5648009578
LA        -0.9636225461        0.0499377979       -0.2625600977
LA        -0.3247203628       -0.9441891080        0.0553499250
LA         0.6035135648        0.0644776295       -0.7947414752
LA         0.3419291258       -0.9396207082        0.0140498287
LA        -0.1911000423        0.4985388532       -0.8455411200
LA         0.6505058711       -0.5337735876       -0.5403034969
LA        -0.2262377712        0.2008032103       -0.9531498002
LA         0.5496648435       -0.5761210934        0.6049405307
LA         0.1966907269        0.1563017512       -0.9679269190
LA        -0.5236554695       -0.7598182254        0.3853066488
LA         0.6463683961        0.5177420813       -0.5604917786
LA         0.7715625409       -0.5152041325       -0.3731701318
LA         0.2524084432       -0.9447206515        0.2092674565
LA         0.1188099367       -0.1614421853        0.9797043532
LA        -0.5159161421        0.2344205489        0.8239402530
LA         0.8254705778       -0.1332037569        0.5485025837
LA         0.3675154717        0.7460411579        0.5552971897
LA        -0.2889624737       -0.6211427767        0.7284794711
LA         0.1238319115        0.5055434692       -0.8538685253
LA         0.6550195532       -0.3618213583        0.6633511058
LA         0.6262759411       -0.6786490402       -0.3836846698
LA        -0.0590082859        0.4690793059        0.8811825163
LA         0.8714130785        0.3625768725       -0.3304198212
LA        -0.1805849273        0.9443229051        0.2750333342
LA         0.9285225119       -0.3710579666        0.0127251881
LA         0.0736082785       -0.4748886048        0.8769621625
LA         0.4946831489        0.6038448010        0.6250280301
LA         0.2889624706        0.6211427777       -0.7284794714
LA        -0.4027283125        0.5588707290        0.7248954508
LA        -0.4157471920       -0.0620106230        0.9073637391
LA         0.1014070542        0.0782105343        0.9917659611
LA        -0.0091906652        0.1203961991        0.9926833770
LA        -0.4709825543       -0.8652690738        0.1717115703
LA        -0.8202205941       -0.1297627504        0.5571353567
LA         0.5066332711       -0.8522875329       -0.1301102986
LA        -0.0471692632        0.3616448734       -0.9311219287
LA        -0.6943668710        0.7123307172       -0.1021743500
LA         0.7446289091        0.1697571867        0.6455310104
LA        -0.5565712079        0.7659681406        0.3217472581
LA         0.5922852076        0.5344627108        0.6029492878
LA        -0.8568420350       -0.4245315837       -0.2925656534
LA        -0.4214388687        0.7978094815       -0.4311488272
LA        -0.1966907124       -0.1563017430        0.9679269233
LA         0.8743095135       -0.3473725009       -0.3389914751
LA         0.9864745944        0.0261873632        0.1618088273
LA        -0.2268273294        0.2010367010        0.9529604438
LA        -0.9722963844       -0.2233612681       -0.0689165061
LA        -0.7367143632        0.4744896641        0.4817795198
LA        -0.6639266861       -0.5381632810       -0.5192125176
LA         0.9722963842        0.2233612658        0.0689165165
LA         0.6328712484        0.3578163024       -0.6866159601
LA        -0.9894130582        0.1378332593       -0.0454289868
LA         0.6750699635       -0.2488115553        0.6945310319
LA        -0.4426957471        0.5989630521       -0.6672808537
LA        -0.3784306908        0.8751176698        0.3015945561
LA         0.6152204974       -0.7324703122        0.2915321273
LA        -0.0750657349        0.8053870913       -0.5879768437
LA         0.9239914123        0.3619993949       -0.1232733068
LA        -0.0051865121        0.9071805665       -0.4207095434
LA         0.1009570276        0.0789668317       -0.9917519438
LA        -0.9864745956       -0.0261873681       -0.1618088193
LA        -0.0797965127       -0.9967933650        0.0059585349
LA         0.5104915046       -0.5051879285        0.6958330120
LA        -0.3305806288        0.2458547167       -0.9111925736
LA        -0.8807884560       -0.4206262219        0.2174517815
LA        -0.7819812338        0.3694036700       -0.5020421084
LA         0.0051865009       -0.9071805690        0.4207095380
LA         0.4280861482       -0.1712529206       -0.8873638977
LA         0.8468664978       -0.4477371388       -0.2869644395
LA        -0.5315196591        0.8103010145       -0.2467774663
LA        -0.1446850414       -0.5006747975       -0.8534582509
LA        -0.7294891991        0.3043730329        0.6125378071
LA        -0.6894643961       -0.0059387202        0.7242952285
LA         0.1000250513       -0.8667858584        0.4885460723
LA        -0.9030303824       -0.2497335548        0.3495272236
LA         0.6034053013       -0.6882925361        0.4026852705
LA        -0.9347886553        0.3326861333       -0.1244592572
LA         0.7239093131        0.2996641223       -0.6214150949
LA        -0.0030146622        0.9935458665        0.1133910181
LA        -0.8838783599        0.0725164872       -0.4620610393
LA        -0.7621319486        0.6467303026       -0.0299133518
LA        -0.2242695121        0.6749522938        0.7029527631
LA         0.1245531250       -0.9886956750       -0.0834708405
LA        -0.4369577316        0.8416244773       -0.3173896342
LA        -0.1245531365        0.9886956744        0.0834708312
LA         0.7379818336        0.4565195621        0.4969634822
LA        -0.4464210602       -0.8812920450       -0.1550244124
LA         0.7381880432       -0.3084085885        0.5999687954
LA         0.7695056271       -0.5833768483        0.2598702422
LA         0.7124125843        0.6216471302        0.3256119704
LA         0.4251745482       -0.0549422006       -0.9034422827
LA        -0.5119792580       -0.5053600144       -0.6946139182
LA        -0.3376057664       -0.9273178555       -0.1615671422
LA         0.0536476344       -0.9780498701        0.2013464252
LA        -0.1803969489       -0.6677858464        0.7221627269
LA         0.6878386439       -0.5801902886       -0.4361848564
LA         0.9028265921        0.3868638669        0.1877245137
LA        -0.9285225146        0.3710579599       -0.0127251795
LA        -0.2472044959        0.3183476718       -0.9151746812
LA        -0.2884146924       -0.2284388817        0.9298562483
LA         0.6959821310        0.6093744713       -0.3798310507
LA        -0.7268430615       -0.6822920366        0.0785922439
LA         0.8158036319        0.5677320246        0.1102033684
LA         0.5699740561        0.2818630239        0.7718049048
LA         0.0111492607        0.5463713254       -0.8374688464
LA        -0.5040198109       -0.5120335199        0.6955470543
LA         0.1467538502       -0.9097741858       -0.3882965855
LA         0.1562159344        0.7550427632       -0.6367943212
LA        -0.6906094837       -0.4102197790        0.5956326670
LA        -0.9657228194        0.2581157746       -0.0274896882
LA        -0.4280861336        0.1712529255        0.8873639038
LA         0.8892771799       -0.4470386343        0.0966569020
LA         0.1189300258       -0.1609414709       -0.9797721633
LA        -0.9813779344        0.1810060745        0.0642973632
LA        -0.8796778235        0.0482037726        0.4731208335
LA         0.2070000316        0.9771887525       -0.0474671346
LA         0.3648101380       -0.6815384899        0.6343649186
LA         0.1251741931       -0.9150327057        0.3834665159
LA         0.3166513293        0.5154081089       -0.7962954332
LA         0.6435465943       -0.3646202912       -0.6729783237
LA        -0.1086410301        0.6640781579        0.7397278734
LA         0.3993016337        0.1786340157       -0.8992486273
LA        -0.6918381946        0.6415698076       -0.3312824995
LA         0.4305690768       -0.4587883424       -0.7772538369
LA        -0.5617883041        0.4099300197       -0.7185758695
LA        -0.4799772378        0.3838622164       -0.7888419677
LA         0.6916893954        0.4149657763        0.5910746017
LA        -0.9028265929       -0.3868638671       -0.1877245095
LA         0.5159161550       -0.2344205457       -0.8239402459
LA        -0.9970089337       -0.0576414920        0.0514844102
LA        -0.5836961003        0.3022791090        0.7536087863
LA        -0.5970196252       -0.7509533586        0.2821996109
LA        -0.1054854407        0.5756291110       -0.8108785041
LA        -0.5499255778       -0.8219783759       -0.1480993195
LA         0.9612294211        0.0764912269       -0.2649284660
LA        -0.8892771844        0.4470386271       -0.0966568943
LA         0.1927615877       -0.8157456623        0.5453457479
LA         0.7566066391        0.5187387995       -0.3980658886
LA        -0.7581695675        0.5380310723       -0.3683768073
LA        -0.1838516005       -0.2714812500       -0.9447203395
LA         0.5182870812        0.0051905216       -0.8551909494
LA         0.2839419054        0.7118484335        0.6423774607
LA         0.5196474746       -0.1361951709        0.8434556168
LA        -0.3872916058        0.7192428267        0.5767971640
LA        -0.6505058672        0.5337735856        0.5403035036
LA         0.0324482788       -0.9994607923       -0.0050233384
LA         0.9471353716        0.2680055915        0.1763734410
LA        -0.4217751764       -0.8247382582        0.3767127634
LA         0.8832124928        0.4591304369        0.0955768510
LA        -0.5632901066       -0.5924897318        0.5758994474
LA         0.0235880479       -0.2406443200       -0.9703267054
LA         0.1391040858        0.8281036854        0.5430417475
LA        -0.3957940459       -0.8771161405        0.2720557835
LA        -0.6846984894       -0.6902805918       -0.2338817720
LA         0.6799176519        0.1260382091       -0.7223754955
LA        -0.0225065991        0.9065360407        0.4215280061
LA        -0.3419291369        0.9396207041       -0.0140498343
LA        -0.9866875029       -0.0100917934        0.1623142857
LA        -0.9276780903       -0.0160583893        0.3730355062
LA        -0.9239924332        0.2756814634        0.2650239880
LA         0.9052572273       -0.3697541499       -0.2092635205
LA         0.0878538355        0.7028186634        0.7059232465
LA         0.1065424038       -0.8636764097       -0.4926578687
LA         0.2558124734        0.7918628051        0.5545387961
LA        -0.6958664002        0.4216724648        0.5813452378
LA        -0.8397156666       -0.2769219023       -0.4671101148
LA         0.8203261205       -0.1141411366       -0.5603899151
LA         0.4396388283       -0.8954626712        0.0697445711
LA         0.0225065942       -0.9065360361       -0.4215280162
LA        -0.2266367339       -0.8587825650        0.4594869932
LA         0.1504621933        0.3919628894       -0.9075936435
LA        -0.4355357934       -0.8980280182        0.0620826158
LA         0.6846984857        0.6902805980        0.2338817645
LA        -0.9494232913        0.3011044910        0.0890589657
LA         0.1759309640        0.2751202929       -0.9451757087
LA         0.0095313504       -0.1205458929        0.9926619974
LA         0.2487350593       -0.3197052587       -0.9142862888
LA         0.0193310153       -0.6440643801        0.7647270011
LA        -0.2958804579        0.5899949655        0.7512394394
LA         0.3465955744       -0.8995438685        0.2658803046
LA         0.3438081180       -0.6597573230       -0.6682187163
LA        -0.7517585454        0.1805612585        0.6342371176
LA        -0.8812181303       -0.0450668128       -0.4705566802
LA        -0.3958630982        0.7452736737       -0.5365254502
LA         0.7268430593        0.6822920385       -0.0785922478
LA         0.1910699565       -0.5875190508       -0.7863292165
LA         0.4287659322        0.4613288121       -0.7767467428
LA        -0.4528581974        0.6256235362        0.6352280252
LA        -0.7029441761        0.4254671435       -0.5699536780
LA         0.7593082347        0.0473798890        0.6490039683
LA         0.6085080054        0.4409972140        0.6597268106
LA        -0.8761215453        0.3610420330       -0.3194678205
LA         0.1702613796        0.9550834723       -0.2425420037
LA         0.5225009660       -0.8526342013       -0.0027675594
LA         0.4528582019       -0.6256235353       -0.6352280229
LA        -0.3097476765        0.8132309530       -0.4926578873
LA         0.4709825511        0.8652690738       -0.1717115791
LA        -0.5298645538        0.7289358814        0.4334697629
LA        -0.1992553771       -0.1532611694       -0.9678885828
LA        -0.5496648524        0.5761210846       -0.6049405309
LA        -0.2070000393       -0.9771887514        0.0474671233
LA         0.8511888813        0.5248521972        0.0027675873
LA         0.1992553927        0.1532611774        0.9678885783
LA         0.3220852526       -0.0131233998        0.9466197053
LA         0.6863376022       -0.1329550560        0.7150270267
LA        -0.5812863270        0.6361303293       -0.5073898009
LA         0.2114197492        0.0367869096       -0.9767028273
LA        -0.2971769201        0.9263463053        0.2314484842
LA         0.2971769118       -0.9263463066       -0.2314484896
LA         0.1713910700        0.7533520381        0.6348903904
LA         0.8812181294        0.0450668016        0.4705566829
LA        -0.6104991932        0.7902810130       -0.0524085445
LA        -0.4858981417       -0.2386601800        0.8407998064
LA         0.0863412558        0.9378609951       -0.3360981129
LA         0.7919851874        0.5246362589        0.3122759338
LA        -0.8203261126        0.1141411345        0.5603899270